# vtk DataFile Version 4.2
vtk output
ASCII
DATASET POLYDATA
POINTS 813 double
0 0 0 0.0012727922061 0.0012727922061 0 0.0012727922061 0 0.0012727922061 
0 0.0012727922061 0.0012727922061 0 0.0025455844123 0 0.0012727922061 0.0025455844123 0.0012727922061 
0.0025455844123 0 0 0.0025455844123 0.0012727922061 0.0012727922061 0.0025455844123 0.0025455844123 0 
0 0 0.0025455844123 0.0012727922061 0.0012727922061 0.0025455844123 0.0025455844123 0 0.0025455844123 
0 0.0025455844123 0.0025455844123 0.0012727922061 0 0.0038183766184 0 0.0012727922061 0.0038183766184 
0.0012727922061 0.0025455844123 0.0038183766184 0.0025455844123 0.0012727922061 0.0038183766184 0.0025455844123 0.0025455844123 0.0025455844123 
0 0 0.0050911688245 0.0012727922061 0.0012727922061 0.0050911688245 0.0025455844123 0 0.0050911688245 
0 0.0025455844123 0.0050911688245 0.0012727922061 0 0.0063639610307 0 0.0012727922061 0.0063639610307 
0.0012727922061 0.0025455844123 0.0063639610307 0.0025455844123 0.0012727922061 0.0063639610307 0.0025455844123 0.0025455844123 0.0050911688245 
0 0 0.0076367532368 0.0012727922061 0.0012727922061 0.0076367532368 0.0025455844123 0 0.0076367532368 
0 0.0025455844123 0.0076367532368 0 0.0012727922061 0.008909545443 0.0025455844123 0.0025455844123 0.0076367532368 
0.0012727922061 0.0038183766184 0 0 0.0038183766184 0.0012727922061 0 0.0050911688245 0 
0.0012727922061 0.0050911688245 0.0012727922061 0.0025455844123 0.0038183766184 0.0012727922061 0.0025455844123 0.0050911688245 0 
0.0012727922061 0.0038183766184 0.0025455844123 0 0.0050911688245 0.0025455844123 0 0.0038183766184 0.0038183766184 
0.0012727922061 0.0050911688245 0.0038183766184 0.0025455844123 0.0038183766184 0.0038183766184 0.0025455844123 0.0050911688245 0.0025455844123 
0.0012727922061 0.0038183766184 0.0050911688245 0 0.0050911688245 0.0050911688245 0 0.0038183766184 0.0063639610307 
0.0012727922061 0.0050911688245 0.0063639610307 0.0025455844123 0.0038183766184 0.0063639610307 0.0025455844123 0.0050911688245 0.0050911688245 
0.0012727922061 0.0038183766184 0.0076367532368 0 0.0050911688245 0.0076367532368 0 0.0038183766184 0.008909545443 
0.0012727922061 0.0050911688245 0.008909545443 0.0025455844123 0.0038183766184 0.008909545443 0.0025455844123 0.0050911688245 0.0076367532368 
0 0.0050911688245 0.010182337649 0.0012727922061 0.0063639610307 0 0 0.0063639610307 0.0012727922061 
0 0.0076367532368 0 0.0012727922061 0.0076367532368 0.0012727922061 0.0025455844123 0.0063639610307 0.0012727922061 
0.0025455844123 0.0076367532368 0 0.0012727922061 0.0063639610307 0.0025455844123 0 0.0076367532368 0.0025455844123 
0 0.0063639610307 0.0038183766184 0.0012727922061 0.0076367532368 0.0038183766184 0.0025455844123 0.0063639610307 0.0038183766184 
0.0025455844123 0.0076367532368 0.0025455844123 0.0012727922061 0.0063639610307 0.0050911688245 0 0.0076367532368 0.0050911688245 
0 0.0063639610307 0.0063639610307 0.0012727922061 0.0076367532368 0.0063639610307 0.0025455844123 0.0063639610307 0.0063639610307 
0.0025455844123 0.0076367532368 0.0050911688245 0.0012727922061 0.0063639610307 0.0076367532368 0 0.0076367532368 0.0076367532368 
0 0.0063639610307 0.008909545443 0.0025455844123 0.0063639610307 0.008909545443 0.0025455844123 0.0076367532368 0.0076367532368 
0.0012727922061 0.008909545443 0 0 0.008909545443 0.0012727922061 0 0.010182337649 0 
0.0012727922061 0.010182337649 0.0012727922061 0.0025455844123 0.008909545443 0.0012727922061 0.0025455844123 0.010182337649 0 
0.0012727922061 0.008909545443 0.0025455844123 0 0.010182337649 0.0025455844123 0 0.008909545443 0.0038183766184 
0.0012727922061 0.010182337649 0.0038183766184 0.0025455844123 0.008909545443 0.0038183766184 0.0025455844123 0.010182337649 0.0025455844123 
0.0012727922061 0.008909545443 0.0050911688245 0 0.010182337649 0.0050911688245 0 0.008909545443 0.0063639610307 
0.0012727922061 0.010182337649 0.0063639610307 0.0025455844123 0.008909545443 0.0063639610307 0.0025455844123 0.010182337649 0.0050911688245 
0.0012727922061 0.008909545443 0.0076367532368 0 0.010182337649 0.0076367532368 0 0.008909545443 0.008909545443 
0.0025455844123 0.010182337649 0.0076367532368 0.0012727922061 0.011455129855 0 0 0.011455129855 0.0012727922061 
0 0.012727922061 0 0.0012727922061 0.012727922061 0.0012727922061 0.0025455844123 0.011455129855 0.0012727922061 
0.0025455844123 0.012727922061 0 0.0012727922061 0.011455129855 0.0025455844123 0 0.012727922061 0.0025455844123 
0 0.011455129855 0.0038183766184 0.0012727922061 0.012727922061 0.0038183766184 0.0025455844123 0.011455129855 0.0038183766184 
0.0025455844123 0.012727922061 0.0025455844123 0.0012727922061 0.011455129855 0.0050911688245 0 0.012727922061 0.0050911688245 
0 0.011455129855 0.0063639610307 0.0012727922061 0.012727922061 0.0063639610307 0.0025455844123 0.011455129855 0.0063639610307 
0.0025455844123 0.012727922061 0.0050911688245 0.0012727922061 0.011455129855 0.0076367532368 0 0.012727922061 0.0076367532368 
0 0.011455129855 0.008909545443 0.0025455844123 0.012727922061 0.0076367532368 0.0012727922061 0.014000714267 0 
0 0.014000714267 0.0012727922061 0 0.015273506474 0 0.0012727922061 0.015273506474 0.0012727922061 
0.0025455844123 0.014000714267 0.0012727922061 0.0025455844123 0.015273506474 0 0.0012727922061 0.014000714267 0.0025455844123 
0 0.015273506474 0.0025455844123 0 0.014000714267 0.0038183766184 0.0012727922061 0.015273506474 0.0038183766184 
0.0025455844123 0.014000714267 0.0038183766184 0.0025455844123 0.015273506474 0.0025455844123 0.0012727922061 0.014000714267 0.0050911688245 
0 0.015273506474 0.0050911688245 0 0.014000714267 0.0063639610307 0.0012727922061 0.015273506474 0.0063639610307 
0.0025455844123 0.014000714267 0.0063639610307 0.0025455844123 0.015273506474 0.0050911688245 0.0012727922061 0.014000714267 0.0076367532368 
0 0.015273506474 0.0076367532368 0 0.014000714267 0.008909545443 0.0012727922061 0.015273506474 0.008909545443 
0.0025455844123 0.015273506474 0.0076367532368 0 0.015273506474 0.010182337649 0.0012727922061 0.01654629868 0 
0 0.01654629868 0.0012727922061 0 0.017819090886 0 0.0012727922061 0.017819090886 0.0012727922061 
0.0025455844123 0.01654629868 0.0012727922061 0.0025455844123 0.017819090886 0 0.0012727922061 0.01654629868 0.0025455844123 
0 0.017819090886 0.0025455844123 0 0.01654629868 0.0038183766184 0.0012727922061 0.017819090886 0.0038183766184 
0.0025455844123 0.01654629868 0.0038183766184 0.0025455844123 0.017819090886 0.0025455844123 0.0012727922061 0.01654629868 0.0050911688245 
0 0.017819090886 0.0050911688245 0 0.01654629868 0.0063639610307 0.0012727922061 0.017819090886 0.0063639610307 
0.0025455844123 0.01654629868 0.0063639610307 0.0025455844123 0.017819090886 0.0050911688245 0.0012727922061 0.01654629868 0.0076367532368 
0 0.017819090886 0.0076367532368 0 0.01654629868 0.008909545443 0.0012727922061 0.017819090886 0.008909545443 
0.0025455844123 0.01654629868 0.008909545443 0.0025455844123 0.017819090886 0.0076367532368 0.0012727922061 0.01654629868 0.010182337649 
0.0012727922061 0.019091883092 0 0 0.019091883092 0.0012727922061 0 0.020364675298 0 
0.0012727922061 0.020364675298 0.0012727922061 0.0025455844123 0.019091883092 0.0012727922061 0.0025455844123 0.020364675298 0 
0.0012727922061 0.019091883092 0.0025455844123 0 0.020364675298 0.0025455844123 0 0.019091883092 0.0038183766184 
0.0012727922061 0.020364675298 0.0038183766184 0.0025455844123 0.019091883092 0.0038183766184 0.0025455844123 0.020364675298 0.0025455844123 
0.0012727922061 0.019091883092 0.0050911688245 0 0.020364675298 0.0050911688245 0 0.019091883092 0.0063639610307 
0.0012727922061 0.020364675298 0.0063639610307 0.0025455844123 0.019091883092 0.0063639610307 0.0025455844123 0.020364675298 0.0050911688245 
0.0012727922061 0.019091883092 0.0076367532368 0 0.020364675298 0.0076367532368 0 0.019091883092 0.008909545443 
0.0025455844123 0.020364675298 0.0076367532368 0.0012727922061 0.021637467504 0 0 0.021637467504 0.0012727922061 
0 0.02291025971 0 0.0012727922061 0.02291025971 0.0012727922061 0.0025455844123 0.021637467504 0.0012727922061 
0.0025455844123 0.02291025971 0 0.0012727922061 0.021637467504 0.0025455844123 0 0.02291025971 0.0025455844123 
0 0.021637467504 0.0038183766184 0.0012727922061 0.02291025971 0.0038183766184 0.0025455844123 0.021637467504 0.0038183766184 
0.0025455844123 0.02291025971 0.0025455844123 0.0012727922061 0.021637467504 0.0050911688245 0 0.02291025971 0.0050911688245 
0 0.021637467504 0.0063639610307 0.0012727922061 0.02291025971 0.0063639610307 0.0025455844123 0.021637467504 0.0063639610307 
0.0025455844123 0.02291025971 0.0050911688245 0.0012727922061 0.021637467504 0.0076367532368 0 0.02291025971 0.0076367532368 
0 0.021637467504 0.008909545443 0.0025455844123 0.02291025971 0.0076367532368 0.0012727922061 0.024183051917 0 
0 0.024183051917 0.0012727922061 0 0.025455844123 0 0.0012727922061 0.025455844123 0.0012727922061 
0.0025455844123 0.024183051917 0.0012727922061 0.0025455844123 0.025455844123 0 0.0012727922061 0.024183051917 0.0025455844123 
0 0.025455844123 0.0025455844123 0 0.024183051917 0.0038183766184 0.0012727922061 0.025455844123 0.0038183766184 
0.0025455844123 0.024183051917 0.0038183766184 0.0025455844123 0.025455844123 0.0025455844123 0.0012727922061 0.024183051917 0.0050911688245 
0 0.025455844123 0.0050911688245 0 0.024183051917 0.0063639610307 0.0012727922061 0.025455844123 0.0063639610307 
0.0025455844123 0.024183051917 0.0063639610307 0.0025455844123 0.025455844123 0.0050911688245 0.0012727922061 0.024183051917 0.0076367532368 
0 0.025455844123 0.0076367532368 0 0.024183051917 0.008909545443 0.0025455844123 0.025455844123 0.0076367532368 
0.0012727922061 0.026728636329 0 0 0.026728636329 0.0012727922061 0 0.028001428535 0 
0.0012727922061 0.028001428535 0.0012727922061 0.0025455844123 0.026728636329 0.0012727922061 0.0025455844123 0.028001428535 0 
0.0012727922061 0.026728636329 0.0025455844123 0 0.028001428535 0.0025455844123 0 0.026728636329 0.0038183766184 
[...]
CELL_DATA 2
SCALARS ilgis double
LOOKUP_TABLE default
111 111 
POINT_DATA 813
SCALARS RADIUS double
LOOKUP_TABLE default
0.0009 0.0009 0.0009 0.0009 0.0009 0.0009 0.0009 0.0009 0.0009 
0.0009 0.0009 0.0009 0.0009 0.0009 0.0009 0.0009 0.0009 0.0009 
0.0009 0.0009 0.0009 0.0009 0.0009 0.0009 0.0009 0.0009 0.0009 
0.0009 0.0009 0.0009 0.0009 0.0009 0.0009 0.0009 0.0009 0.0009 
0.0009 0.0009 0.0009 0.0009 0.0009 0.0009 0.0009 0.0009 0.0009 
0.0009 0.0009 0.0009 0.0009 0.0009 0.0009 0.0009 0.0009 0.0009 
0.0009 0.0009 0.0009 0.0009 0.0009 0.0009 0.0009 0.0009 0.0009 
0.0009 0.0009 0.0009 0.0009 0.0009 0.0009 0.0009 0.0009 0.0009 
0.0009 0.0009 0.0009 0.0009 0.0009 0.0009 0.0009 0.0009 0.0009 
0.0009 0.0009 0.0009 0.0009 0.0009 0.0009 0.0009 0.0009 0.0009 
0.0009 0.0009 0.0009 0.0009 0.0009 0.0009 0.0009 0.0009 0.0009 
0.0009 0.0009 0.0009 0.0009 0.0009 0.0009 0.0009 0.0009 0.0009 
0.0009 0.0009 0.0009 0.0009 0.0009 0.0009 0.0009 0.0009 0.0009 
0.0009 0.0009 0.0009 0.0009 0.0009 0.0009 0.0009 0.0009 0.0009 
0.0009 0.0009 0.0009 0.0009 0.0009 0.0009 0.0009 0.0009 0.0009 
0.0009 0.0009 0.0009 0.0009 0.0009 0.0009 0.0009 0.0009 0.0009 
0.0009 0.0009 0.0009 0.0009 0.0009 0.0009 0.0009 0.0009 0.0009 
0.0009 0.0009 0.0009 0.0009 0.0009 0.0009 0.0009 0.0009 0.0009 
0.0009 0.0009 0.0009 0.0009 0.0009 0.0009 0.0009 0.0009 0.0009 
0.0009 0.0009 0.0009 0.0009 0.0009 0.0009 0.0009 0.0009 0.0009 
0.0009 0.0009 0.0009 0.0009 0.0009 0.0009 0.0009 0.0009 0.0009 
0.0009 0.0009 0.0009 0.0009 0.0009 0.0009 0.0009 0.0009 0.0009 
0.0009 0.0009 0.0009 0.0009 0.0009 0.0009 0.0009 0.0009 0.0009 
0.0009 0.0009 0.0009 0.0009 0.0009 0.0009 0.0009 0.0009 0.0009 
0.0009 0.0009 0.0009 0.0009 0.0009 0.0009 0.0009 0.0009 0.0009 
0.0009 0.0009 0.0009 0.0009 0.0009 0.0009 0.0009 0.0009 0.0009 
0.0009 0.0009 0.0009 0.0009 0.0009 0.0009 0.0009 0.0009 0.0009 
0.0009 0.0009 0.0009 0.0009 0.0009 0.0009 0.0009 0.0009 0.0009 
0.0009 0.0009 0.0009 0.0009 0.0009 0.0009 0.0009 0.0009 0.0009 
0.0009 0.0009 0.0009 0.0009 0.0009 0.0009 0.0009 0.0009 0.0009 
0.0009 0.0009 0.0009 0.0009 0.0009 0.0009 0.0009 0.0009 0.0009 
0.0009 0.0009 0.0009 0.0009 0.0009 0.0009 0.0009 0.0009 0.0009 
0.0009 0.0009 0.0009 0.0009 0.0009 0.0009 0.0009 0.0009 0.0009 
0.0009 0.0009 0.0009 0.0009 0.0009 0.0009 0.0009 0.0009 0.0009 
0.0009 0.0009 0.0009 0.0009 0.0009 0.0009 0.0009 0.0009 0.0009 
0.0009 0.0009 0.0009 0.0009 0.0009 0.0009 0.0009 0.0009 0.0009 
0.0009 0.0009 0.0009 0.0009 0.0009 0.0009 0.0009 0.0009 0.0009 
0.0009 0.0009 0.0009 0.0009 0.0009 0.0009 0.0009 0.0009 0.0009 
0.0009 0.0009 0.0009 0.0009 0.0009 0.0009 0.0009 0.0009 0.0009 
0.0009 0.0009 0.0009 0.0009 0.0009 0.0009 0.0009 0.0009 0.0009 
0.0009 0.0009 0.0009 0.0009 0.0009 0.0009 0.0009 0.0009 0.0009 
0.0009 0.0009 0.0009 0.0009 0.0009 0.0009 0.0009 0.0009 0.0009 
0.0009 0.0009 0.0009 0.0009 0.0009 0.0009 0.0009 0.0009 0.0009 
0.0009 0.0009 0.0009 0.0009 0.0009 0.0009 0.0009 0.0009 0.0009 
0.0009 0.0009 0.0009 0.0009 0.0009 0.0009 0.0009 0.0009 0.0009 
0.0009 0.0009 0.0009 0.0009 0.0009 0.0009 0.0009 0.0009 0.0009 
0.0009 0.0009 0.0009 0.0009 0.0009 0.0009 0.0009 0.0009 0.0009 
0.0009 0.0009 0.0009 0.0009 0.0009 0.0009 0.0009 0.0009 0.0009 
0.0009 0.0009 0.0009 0.0009 0.0009 0.0009 0.0009 0.0009 0.0009 
0.0009 0.0009 0.0009 0.0009 0.0009 0.0009 0.0009 0.0009 0.0009 
0.0009 0.0009 0.0009 0.0009 0.0009 0.0009 0.0009 0.0009 0.0009 
0.0009 0.0009 0.0009 0.0009 0.0009 0.0009 0.0009 0.0009 0.0009 
0.0009 0.0009 0.0009 0.0009 0.0009 0.0009 0.0009 0.0009 0.0009 
0.0009 0.0009 0.0009 0.0009 0.0009 0.0009 0.0009 0.0009 0.0009 
0.0009 0.0009 0.0009 0.0009 0.0009 0.0009 0.0009 0.0009 0.0009 
0.0009 0.0009 0.0009 0.0009 0.0009 0.0009 0.0009 0.0009 0.0009 
0.0009 0.0009 0.0009 0.0009 0.0009 0.0009 0.0009 0.0009 0.0009 
0.0009 0.0009 0.0009 0.0009 0.0009 0.0009 0.0009 0.0009 0.0009 
0.0009 0.0009 0.0009 0.0009 0.0009 0.0009 0.0009 0.0009 0.0009 
0.0009 0.0009 0.0009 0.0009 0.0009 0.0009 0.0009 0.0009 0.0009 
0.0009 0.0009 0.0009 0.0009 0.0009 0.0009 0.0009 0.0009 0.0009 
0.0009 0.0009 0.0009 0.0009 0.0009 0.0009 0.0009 0.0009 0.0009 
0.0009 0.0009 0.0009 0.0009 0.0009 0.0009 0.0009 0.0009 0.0009 
0.0009 0.0009 0.0009 0.0009 0.0009 0.0009 0.0009 0.0009 0.0009 
0.0009 0.0009 0.0009 0.0009 0.0009 0.0009 0.0009 0.0009 0.0009 
0.0009 0.0009 0.0009 0.0009 0.0009 0.0009 0.0009 0.0009 0.0009 
0.0009 0.0009 0.0009 0.0009 0.0009 0.0009 0.0009 0.0009 0.0009 
0.0009 0.0009 0.0009 0.0009 0.0009 0.0009 0.0009 0.0009 0.0009 
0.0009 0.0009 0.0009 0.0009 0.0009 0.0009 0.0009 0.0009 0.0009 
0.0009 0.0009 0.0009 0.0009 0.0009 0.0009 0.0009 0.0009 0.0009 
0.0009 0.0009 0.0009 0.0009 0.0009 0.0009 0.0009 0.0009 0.0009 
0.0009 0.0009 0.0009 0.0009 0.0009 0.0009 0.0009 0.0009 0.0009 
0.0009 0.0009 0.0009 0.0009 0.0009 0.0009 0.0009 0.0009 0.0009 
0.0009 0.0009 0.0009 0.0009 0.0009 0.0009 0.0009 0.0009 0.0009 
0.0009 0.0009 0.0009 0.0009 0.0009 0.0009 0.0009 0.0009 0.0009 
0.0009 0.0009 0.0009 0.0009 0.0009 0.0009 0.0009 0.0009 0.0009 
0.0009 0.0009 0.0009 0.0009 0.0009 0.0009 0.0009 0.0009 0.0009 
0.0009 0.0009 0.0009 0.0009 0.0009 0.0009 0.0009 0.0009 0.0009 
0.0009 0.0009 0.0009 0.0009 0.0009 0.0009 0.0009 0.0009 0.0009 
0.0009 0.0009 0.0009 0.0009 0.0009 0.0009 0.0009 0.0009 0.0009 
0.0009 0.0009 0.0009 0.0009 0.0009 0.0009 0.0009 0.0009 0.0009 
0.0009 0.0009 0.0009 0.0009 0.0009 0.0009 0.0009 0.0009 0.0009 
0.0009 0.0009 0.0009 0.0009 0.0009 0.0009 0.0009 0.0009 0.0009 
0.0009 0.0009 0.0009 0.0009 0.0009 0.0009 0.0009 0.0009 0.0009 
0.0009 0.0009 0.0009 0.0009 0.0009 0.0009 0.0009 0.0009 0.0009 
0.0009 0.0009 0.0009 0.0009 0.0009 0.0009 0.0009 0.0009 0.0009 
0.0009 0.0009 0.0009 0.0009 0.0009 0.0009 0.0009 0.0009 0.0009 
0.0009 0.0009 0.0009 0.0009 0.0009 0.0009 0.0009 0.0009 0.0009 
0.0009 0.0009 0.0009 0.0009 0.0009 0.0009 0.0009 0.0009 0.0009 
0.0009 0.0009 0.0009 0.0009 0.0009 0.0009 0.0009 0.0009 0.0009 
0.0009 0.0009 0.0009 
